<?xml version="1.0"?>
<VTKFile type="ImageData" version="1.0" byte_order="LittleEndian">
  <ImageData WholeExtent="0 39 0 39 0 39" Origin="-3 -3 -1" Spacing="0.15384615384615385 0.15384615384615385 0.10256410256410256">
    <Piece Extent="0 39 0 39 0 39">
      <PointData>
        <DataArray type="Float64" Name="GradientVelocity" NumberOfComponents="3" format="ascii">
          3.000000 3.000000 0.200000 3.000000 3.000000 0.179487 3.000000 3.000000 0.158974 3.000000 3.000000 0.138462 3.000000 3.000000 0.117949 3.000000 3.000000 0.097436 3.000000 3.000000 0.076923 3.000000 3.000000 0.056410 3.000000 3.000000 0.035897 3.000000 3.000000 0.015385 3.000000 3.000000 -0.005128 3.000000 3.000000 -0.025641 3.000000 3.000000 -0.046154 3.000000 3.000000 -0.066667 3.000000 3.000000 -0.087179 3.000000 3.000000 -0.107692 3.000000 3.000000 -0.128205 3.000000 3.000000 -0.148718 3.000000 3.000000 -0.169231 3.000000 3.000000 -0.189744 3.000000 3.000000 -0.210256 3.000000 3.000000 -0.230769 3.000000 3.000000 -0.251282 3.000000 3.000000 -0.271795 3.000000 3.000000 -0.292308 3.000000 3.000000 -0.312821 3.000000 3.000000 -0.333333 3.000000 3.000000 -0.353846 3.000000 3.000000 -0.374359 3.000000 3.000000 -0.394872 3.000000 3.000000 -0.415385 3.000000 3.000000 -0.435897 3.000000 3.000000 -0.456410 3.000000 3.000000 -0.476923 3.000000 3.000000 -0.497436 3.000000 3.000000 -0.517949 3.000000 3.000000 -0.538462 3.000000 3.000000 -0.558974 3.000000 3.000000 -0.579487 3.000000 3.000000 -0.600000 3.000000 2.846154 0.200000 3.000000 2.846154 0.179487 3.000000 2.846154 0.158974 3.000000 2.846154 0.138462 3.000000 2.846154 0.117949 3.000000 2.846154 0.097436 3.000000 2.846154 0.076923 3.000000 2.846154 0.056410 3.000000 2.846154 0.035897 3.000000 2.846154 0.015385 3.000000 2.846154 -0.005128 3.000000 2.846154 -0.025641 3.000000 2.846154 -0.046154 3.000000 2.846154 -0.066667 3.000000 2.846154 -0.087179 3.000000 2.846154 -0.107692 3.000000 2.846154 -0.128205 3.000000 2.846154 -0.148718 3.000000 2.846154 -0.169231 3.000000 2.846154 -0.189744 3.000000 2.846154 -0.210256 3.000000 2.846154 -0.230769 3.000000 2.846154 -0.251282 3.000000 2.846154 -0.271795 3.000000 2.846154 -0.292308 3.000000 2.846154 -0.312821 3.000000 2.846154 -0.333333 3.000000 2.846154 -0.353846 3.000000 2.846154 -0.374359 3.000000 2.846154 -0.394872 3.000000 2.846154 -0.415385 3.000000 2.846154 -0.435897 3.000000 2.846154 -0.456410 3.000000 2.846154 -0.476923 3.000000 2.846154 -0.497436 3.000000 2.846154 -0.517949 3.000000 2.846154 -0.538462 3.000000 2.846154 -0.558974 3.000000 2.846154 -0.579487 3.000000 2.846154 -0.600000 3.000000 2.692308 0.200000 3.000000 2.692308 0.179487 3.000000 2.692308 0.158974 3.000000 2.692308 0.138462 3.000000 2.692308 0.117949 3.000000 2.692308 0.097436 3.000000 2.692308 0.076923 3.000000 2.692308 0.056410 3.000000 2.692308 0.035897 3.000000 2.692308 0.015385 3.000000 2.692308 -0.005128 3.000000 2.692308 -0.025641 3.000000 2.692308 -0.046154 3.000000 2.692308 -0.066667 3.000000 2.692308 -0.087179 3.000000 2.692308 -0.107692 3.000000 2.692308 -0.128205 3.000000 2.692308 -0.148718 3.000000 2.692308 -0.169231 3.000000 2.692308 -0.189744 3.000000 2.692308 -0.210256 3.000000 2.692308 -0.230769 3.000000 2.692308 -0.251282 3.000000 2.692308 -0.271795 3.000000 2.692308 -0.292308 3.000000 2.692308 -0.312821 3.000000 2.692308 -0.333333 3.000000 2.692308 -0.353846 3.000000 2.692308 -0.374359 3.000000 2.692308 -0.394872 3.000000 2.692308 -0.415385 3.000000 2.692308 -0.435897 3.000000 2.692308 -0.456410 3.000000 2.692308 -0.476923 3.000000 2.692308 -0.497436 3.000000 2.692308 -0.517949 3.000000 2.692308 -0.538462 3.000000 2.692308 -0.558974 3.000000 2.692308 -0.579487 3.000000 2.692308 -0.600000 3.000000 2.538462 0.200000 3.000000 2.538462 0.179487 3.000000 2.538462 0.158974 3.000000 2.538462 0.138462 3.000000 2.538462 0.117949 3.000000 2.538462 0.097436 3.000000 2.538462 0.076923 3.000000 2.538462 0.056410 3.000000 2.538462 0.035897 3.000000 2.538462 0.015385 3.000000 2.538462 -0.005128 3.000000 2.538462 -0.025641 3.000000 2.538462 -0.046154 3.000000 2.538462 -0.066667 3.000000 2.538462 -0.087179 3.000000 2.538462 -0.107692 3.000000 2.538462 -0.128205 3.000000 2.538462 -0.148718 3.000000 2.538462 -0.169231 3.000000 2.538462 -0.189744 3.000000 2.538462 -0.210256 3.000000 2.538462 -0.230769 3.000000 2.538462 -0.251282 3.000000 2.538462 -0.271795 3.000000 2.538462 -0.292308 3.000000 2.538462 -0.312821 3.000000 2.538462 -0.333333 3.000000 2.538462 -0.353846 3.000000 2.538462 -0.374359 3.000000 2.538462 -0.394872 3.000000 2.538462 -0.415385 3.000000 2.538462 -0.435897 3.000000 2.538462 -0.456410 3.000000 2.538462 -0.476923 3.000000 2.538462 -0.497436 3.000000 2.538462 -0.517949 3.000000 2.538462 -0.538462 3.000000 2.538462 -0.558974 3.000000 2.538462 -0.579487 3.000000 2.538462 -0.600000 3.000000 2.384616 0.200000 3.000000 2.384616 0.179487 3.000000 2.384616 0.158974 3.000000 2.384616 0.138462 3.000000 2.384616 0.117949 3.000000 2.384616 0.097436 3.000000 2.384616 0.076923 3.000000 2.384616 0.056410 3.000000 2.384616 0.035897 3.000000 2.384616 0.015385 3.000000 2.384616 -0.005128 3.000000 2.384616 -0.025641 3.000000 2.384616 -0.046154 3.000000 2.384616 -0.066667 3.000000 2.384616 -0.087179 3.000000 2.384616 -0.107692 3.000000 2.384616 -0.128205 3.000000 2.384616 -0.148718 3.000000 2.384616 -0.169231 3.000000 2.384616 -0.189744 3.000000 2.384616 -0.210256 3.000000 2.384616 -0.230769 3.000000 2.384616 -0.251282 3.000000 2.384616 -0.271795 3.000000 2.384616 -0.292308 3.000000 2.384616 -0.312821 3.000000 2.384616 -0.333333 3.000000 2.384616 -0.353846 3.000000 2.384616 -0.374359 3.000000 2.384616 -0.394872 3.000000 2.384616 -0.415385 3.000000 2.384616 -0.435897 3.000000 2.384616 -0.456410 3.000000 2.384616 -0.476923 3.000000 2.384616 -0.497436 3.000000 2.384616 -0.517949 3.000000 2.384616 -0.538462 3.000000 2.384616 -0.558974 3.000000 2.384616 -0.579487 3.000000 2.384616 -0.600000 3.000000 2.230770 0.200000 3.000000 2.230770 0.179487 3.000000 2.230770 0.158974 3.000000 2.230770 0.138462 3.000000 2.230770 0.117949 3.000000 2.230770 0.097436 3.000000 2.230770 0.076923 3.000000 2.230770 0.056410 3.000000 2.230770 0.035897 3.000000 2.230770 0.015385 3.000000 2.230770 -0.005128 3.000000 2.230770 -0.025641 3.000000 2.230770 -0.046154 3.000000 2.230770 -0.066667 3.000000 2.230770 -0.087179 3.000000 2.230770 -0.107692 3.000000 2.230770 -0.128205 3.000000 2.230770 -0.148718 3.000000 2.230770 -0.169231 3.000000 2.230770 -0.189744 3.000000 2.230770 -0.210256 3.000000 2.230770 -0.230769 3.000000 2.230770 -0.251282 3.000000 2.230770 -0.271795 3.000000 2.230770 -0.292308 3.000000 2.230770 -0.312821 3.000000 2.230770 -0.333333 3.000000 2.230770 -0.353846 3.000000 2.230770 -0.374359 3.000000 2.230770 -0.394872 3.000000 2.230770 -0.415385 3.000000 2.230770 -0.435897 3.000000 2.230770 -0.456410 3.000000 2.230770 -0.476923 3.000000 2.230770 -0.497436 3.000000 2.230770 -0.517949 3.000000 2.230770 -0.538462 3.000000 2.230770 -0.558974 3.000000 2.230770 -0.579487 3.000000 2.230770 -0.600000 3.000001 2.076924 0.200000 3.000001 2.076924 0.179487 3.000001 2.076924 0.158974 3.000001 2.076924 0.138462 3.000001 2.076924 0.117949 3.000001 2.076924 0.097436 3.000001 2.076924 0.076923 3.000001 2.076924 0.056410 3.000001 2.076924 0.035897 3.000001 2.076924 0.015385 3.000001 2.076924 -0.005128 3.000001 2.076924 -0.025641 3.000001 2.076924 -0.046154 3.000001 2.076924 -0.066667 3.000001 2.076924 -0.087179 3.000001 2.076924 -0.107692 3.000001 2.076924 -0.128205 3.000001 2.076924 -0.148718 3.000001 2.076924 -0.169231 3.000001 2.076924 -0.189744 3.000001 2.076924 -0.210256 3.000001 2.076924 -0.230769 3.000001 2.076924 -0.251282 3.000001 2.076924 -0.271795 3.000001 2.076924 -0.292308 3.000001 2.076924 -0.312821 3.000001 2.076924 -0.333333 3.000001 2.076924 -0.353846 3.000001 2.076924 -0.374359 3.000001 2.076924 -0.394872 3.000001 2.076924 -0.415385 3.000001 2.076924 -0.435897 3.000001 2.076924 -0.456410 3.000001 2.076924 -0.476923 3.000001 2.076924 -0.497436 3.000001 2.076924 -0.517949 3.000001 2.076924 -0.538462 3.000001 2.076924 -0.558974 3.000001 2.076924 -0.579487 3.000001 2.076924 -0.600000 3.000002 1.923078 0.200000 3.000002 1.923078 0.179487 3.000002 1.923078 0.158974 3.000002 1.923078 0.138462 3.000002 1.923078 0.117949 3.000002 1.923078 0.097436 3.000002 1.923078 0.076923 3.000002 1.923078 0.056410 3.000002 1.923078 0.035897 3.000002 1.923078 0.015385 3.000002 1.923078 -0.005128 3.000002 1.923078 -0.025641 3.000002 1.923078 -0.046154 3.000002 1.923078 -0.066667 3.000002 1.923078 -0.087179 3.000002 1.923078 -0.107692 3.000002 1.923078 -0.128205 3.000002 1.923078 -0.148718 3.000002 1.923078 -0.169231 3.000002 1.923078 -0.189744 3.000002 1.923078 -0.210256 3.000002 1.923078 -0.230769 3.000002 1.923078 -0.251282 3.000002 1.923078 -0.271795 3.000002 1.923078 -0.292308 3.000002 1.923078 -0.312821 3.000002 1.923078 -0.333333 3.000002 1.923078 -0.353846 3.000002 1.923078 -0.374359 3.000002 1.923078 -0.394872 3.000002 1.923078 -0.415385 3.000002 1.923078 -0.435897 3.000002 1.923078 -0.456410 3.000002 1.923078 -0.476923 3.000002 1.923078 -0.497436 3.000002 1.923078 -0.517949 3.000002 1.923078 -0.538462 3.000002 1.923078 -0.558974 3.000002 1.923078 -0.579487 3.000002 1.923078 -0.600000 3.000004 1.769233 0.200000 3.000004 1.769233 0.179487 3.000004 1.769233 0.158974 3.000004 1.769233 0.138462 3.000004 1.769233 0.117949 3.000004 1.769233 0.097436 3.000004 1.769233 0.076923 3.000004 1.769233 0.056410 3.000004 1.769233 0.035897 3.000004 1.769233 0.015385 3.000004 1.769233 -0.005128 3.000004 1.769233 -0.025641 3.000004 1.769233 -0.046154 3.000004 1.769233 -0.066667 3.000004 1.769233 -0.087179 3.000004 1.769233 -0.107692 3.000004 1.769233 -0.128205 3.000004 1.769233 -0.148718 3.000004 1.769233 -0.169231 3.000004 1.769233 -0.189744 3.000004 1.769233 -0.210256 3.000004 1.769233 -0.230769 3.000004 1.769233 -0.251282 3.000004 1.769233 -0.271795 3.000004 1.769233 -0.292308 3.000004 1.769233 -0.312821 3.000004 1.769233 -0.333333 3.000004 1.769233 -0.353846 3.000004 1.769233 -0.374359 3.000004 1.769233 -0.394872 3.000004 1.769233 -0.415385 3.000004 1.769233 -0.435897 3.000004 1.769233 -0.456410 3.000004 1.769233 -0.476923 3.000004 1.769233 -0.497436 3.000004 1.769233 -0.517949 3.000004 1.769233 -0.538462 3.000004 1.769233 -0.558974 3.000004 1.769233 -0.579487 3.000004 1.769233 -0.600000 3.000007 1.615389 0.200000 3.000007 1.615389 0.179487 3.000007 1.615389 0.158974 3.000007 1.615389 0.138462 3.000007 1.615389 0.117949 3.000007 1.615389 0.097436 3.000007 1.615389 0.076923 3.000007 1.615389 0.056410 3.000007 1.615389 0.035897 3.000007 1.615389 0.015385 3.000007 1.615389 -0.005128 3.000007 1.615389 -0.025641 3.000007 1.615389 -0.046154 3.000007 1.615389 -0.066667 3.000007 1.615389 -0.087179 3.000007 1.615389 -0.107692 3.000007 1.615389 -0.128205 3.000007 1.615389 -0.148718 3.000007 1.615389 -0.169231 3.000007 1.615389 -0.189744 3.000007 1.615389 -0.210256 3.000007 1.615389 -0.230769 3.000007 1.615389 -0.251282 3.000007 1.615389 -0.271795 3.000007 1.615389 -0.292308 3.000007 1.615389 -0.312821 3.000007 1.615389 -0.333333 3.000007 1.615389 -0.353846 3.000007 1.615389 -0.374359 3.000007 1.615389 -0.394872 3.000007 1.615389 -0.415385 3.000007 1.615389 -0.435897 3.000007 1.615389 -0.456410 3.000007 1.615389 -0.476923 3.000007 1.615389 -0.497436 3.000007 1.615389 -0.517949 3.000007 1.615389 -0.538462 3.000007 1.615389 -0.558974 3.000007 1.615389 -0.579487 3.000007 1.615389 -0.600000 3.000014 1.461545 0.200000 3.000014 1.461545 0.179487 3.000014 1.461545 0.158974 3.000014 1.461545 0.138462 3.000014 1.461545 0.117949 3.000014 1.461545 0.097436 3.000014 1.461545 0.076923 3.000014 1.461545 0.056410 3.000014 1.461545 0.035897 3.000014 1.461545 0.015385 3.000014 1.461545 -0.005128 3.000014 1.461545 -0.025641 3.000014 1.461545 -0.046154 3.000014 1.461545 -0.066667 3.000014 1.461545 -0.087179 3.000014 1.461545 -0.107692 3.000014 1.461545 -0.128205 3.000014 1.461545 -0.148718 3.000014 1.461545 -0.169231 3.000014 1.461545 -0.189744 3.000014 1.461545 -0.210256 3.000014 1.461545 -0.230769 3.000014 1.461545 -0.251282 3.000014 1.461545 -0.271795 3.000014 1.461545 -0.292308 3.000014 1.461545 -0.312821 3.000014 1.461545 -0.333333 3.000014 1.461545 -0.353846 3.000014 1.461545 -0.374359 3.000014 1.461545 -0.394872 3.000014 1.461545 -0.415385 3.000014 1.461545 -0.435897 3.000014 1.461545 -0.456410 3.000014 1.461545 -0.476923 3.000014 1.461545 -0.497436 3.000014 1.461545 -0.517949 3.000014 1.461545 -0.538462 3.000014 1.461545 -0.558974 3.000014 1.461545 -0.579487 3.000014 1.461545 -0.600000 3.000023 1.307702 0.200000 3.000023 1.307702 0.179487 3.000023 1.307702 0.158974 3.000023 1.307702 0.138462 3.000023 1.307702 0.117949 3.000023 1.307702 0.097436 3.000023 1.307702 0.076923 3.000023 1.307702 0.056410 3.000023 1.307702 0.035897 3.000023 1.307702 0.015385 3.000023 1.307702 -0.005128 3.000023 1.307702 -0.025641 3.000023 1.307702 -0.046154 3.000023 1.307702 -0.066667 3.000023 1.307702 -0.087179 3.000023 1.307702 -0.107692 3.000023 1.307702 -0.128205 3.000023 1.307702 -0.148718 3.000023 1.307702 -0.169231 3.000023 1.307702 -0.189744 3.000023 1.307702 -0.210256 3.000023 1.307702 -0.230769 3.000023 1.307702 -0.251282 3.000023 1.307702 -0.271795 3.000023 1.307702 -0.292308 3.000023 1.307702 -0.312821 3.000023 1.307702 -0.333333 3.000023 1.307702 -0.353846 3.000023 1.307702 -0.374359 3.000023 1.307702 -0.394872 3.000023 1.307702 -0.415385 3.000023 1.307702 -0.435897 3.000023 1.307702 -0.456410 3.000023 1.307702 -0.476923 3.000023 1.307702 -0.497436 3.000023 1.307702 -0.517949 3.000023 1.307702 -0.538462 3.000023 1.307702 -0.558974 3.000023 1.307702 -0.579487 3.000023 1.307702 -0.600000 3.000037 1.153860 0.200000 3.000037 1.153860 0.179487 3.000037 1.153860 0.158974 3.000037 1.153860 0.138462 3.000037 1.153860 0.117949 3.000037 1.153860 0.097436 3.000037 1.153860 0.076923 3.000037 1.153860 0.056410 3.000037 1.153860 0.035897 3.000037 1.153860 0.015385 3.000037 1.153860 -0.005128 3.000037 1.153860 -0.025641 3.000037 1.153860 -0.046154 3.000037 1.153860 -0.066667 3.000037 1.153860 -0.087179 3.000037 1.153860 -0.107692 3.000037 1.153860 -0.128205 3.000037 1.153860 -0.148718 3.000037 1.153860 -0.169231 3.000037 1.153860 -0.189744 3.000037 1.153860 -0.210256 3.000037 1.153860 -0.230769 3.000037 1.153860 -0.251282 3.000037 1.153860 -0.271795 3.000037 1.153860 -0.292308 3.000037 1.153860 -0.312821 3.000037 1.153860 -0.333333 3.000037 1.153860 -0.353846 3.000037 1.153860 -0.374359 3.000037 1.153860 -0.394872 3.000037 1.153860 -0.415385 3.000037 1.153860 -0.435897 3.000037 1.153860 -0.456410 3.000037 1.153860 -0.476923 3.000037 1.153860 -0.497436 3.000037 1.153860 -0.517949 3.000037 1.153860 -0.538462 3.000037 1.153860 -0.558974 3.000037 1.153860 -0.579487 3.000037 1.153860 -0.600000 3.000056 1.000019 0.200000 3.000056 1.000019 0.179487 3.000056 1.000019 0.158974 3.000056 1.000019 0.138462 3.000056 1.000019 0.117949 3.000056 1.000019 0.097436 3.000056 1.000019 0.076923 3.000056 1.000019 0.056410 3.000056 1.000019 0.035897 3.000056 1.000019 0.015385 3.000056 1.000019 -0.005128 3.000056 1.000019 -0.025641 3.000056 1.000019 -0.046154 3.000056 1.000019 -0.066667 3.000056 1.000019 -0.087179 3.000056 1.000019 -0.107692 3.000056 1.000019 -0.128205 3.000056 1.000019 -0.148718 3.000056 1.000019 -0.169231 3.000056 1.000019 -0.189744 3.000056 1.000019 -0.210256 3.000056 1.000019 -0.230769 3.000056 1.000019 -0.251282 3.000056 1.000019 -0.271795 3.000056 1.000019 -0.292308 3.000056 1.000019 -0.312821 3.000056 1.000019 -0.333333 3.000056 1.000019 -0.353846 3.000056 1.000019 -0.374359 3.000056 1.000019 -0.394872 3.000056 1.000019 -0.415385 3.000056 1.000019 -0.435897 3.000056 1.000019 -0.456410 3.000056 1.000019 -0.476923 3.000056 1.000019 -0.497436 3.000056 1.000019 -0.517949 3.000056 1.000019 -0.538462 3.000056 1.000019 -0.558974 3.000056 1.000019 -0.579487 3.000056 1.000019 -0.600000 3.000080 0.846176 0.200000 3.000080 0.846176 0.179487 3.000080 0.846176 0.158974 3.000080 0.846176 0.138462 3.000080 0.846176 0.117949 3.000080 0.846176 0.097436 3.000080 0.846176 0.076923 3.000080 0.846176 0.056410 3.000080 0.846176 0.035897 3.000080 0.846176 0.015385 3.000080 0.846176 -0.005128 3.000080 0.846176 -0.025641 3.000080 0.846176 -0.046154 3.000080 0.846176 -0.066667 3.000080 0.846176 -0.087179 3.000080 0.846176 -0.107692 3.000080 0.846176 -0.128205 3.000080 0.846176 -0.148718 3.000080 0.846176 -0.169231 3.000080 0.846176 -0.189744 3.000080 0.846176 -0.210256 3.000080 0.846176 -0.230769 3.000080 0.846176 -0.251282 3.000080 0.846176 -0.271795 3.000080 0.846176 -0.292308 3.000080 0.846176 -0.312821 3.000080 0.846176 -0.333333 3.000080 0.846176 -0.353846 3.000080 0.846176 -0.374359 3.000080 0.846176 -0.394872 3.000080 0.846176 -0.415385 3.000080 0.846176 -0.435897 3.000080 0.846176 -0.456410 3.000080 0.846176 -0.476923 3.000080 0.846176 -0.497436 3.000080 0.846176 -0.517949 3.000080 0.846176 -0.538462 3.000080 0.846176 -0.558974 3.000080 0.846176 -0.579487 3.000080 0.846176 -0.600000 3.000107 0.692332 0.200000 3.000107 0.692332 0.179487 3.000107 0.692332 0.158974 3.000107 0.692332 0.138462 3.000107 0.692332 0.117949 3.000107 0.692332 0.097436 3.000107 0.692332 0.076923 3.000107 0.692332 0.056410 3.000107 0.692332 0.035897 3.000107 0.692332 0.015385 3.000107 0.692332 -0.005128 3.000107 0.692332 -0.025641 3.000107 0.692332 -0.046154 3.000107 0.692332 -0.066667 3.000107 0.692332 -0.087179 3.000107 0.692332 -0.107692 3.000107 0.692332 -0.128205 3.000107 0.692332 -0.148718 3.000107 0.692332 -0.169231 3.000107 0.692332 -0.189744 3.000107 0.692332 -0.210256 3.000107 0.692332 -0.230769 3.000107 0.692332 -0.251282 3.000107 0.692332 -0.271795 3.000107 0.692332 -0.292308 3.000107 0.692332 -0.312821 3.000107 0.692332 -0.333333 3.000107 0.692332 -0.353846 3.000107 0.692332 -0.374359 3.000107 0.692332 -0.394872 3.000107 0.692332 -0.415385 3.000107 0.692332 -0.435897 3.000107 0.692332 -0.456410 3.000107 0.692332 -0.476923 3.000107 0.692332 -0.497436 3.000107 0.692332 -0.517949 3.000107 0.692332 -0.538462 3.000107 0.692332 -0.558974 3.000107 0.692332 -0.579487 3.000107 0.692332 -0.600000 3.000136 0.538486 0.200000 3.000136 0.538486 0.179487 3.000136 0.538486 0.158974 3.000136 0.538486 0.138462 3.000136 0.538486 0.117949 3.000136 0.538486 0.097436 3.000136 0.538486 0.076923 3.000136 0.538486 0.056410 3.000136 0.538486 0.035897 3.000136 0.538486 0.015385 3.000136 0.538486 -0.005128 3.000136 0.538486 -0.025641 3.000136 0.538486 -0.046154 3.000136 0.538486 -0.066667 3.000136 0.538486 -0.087179 3.000136 0.538486 -0.107692 3.000136 0.538486 -0.128205 3.000136 0.538486 -0.148718 3.000136 0.538486 -0.169231 3.000136 0.538486 -0.189744 3.000136 0.538486 -0.210256 3.000136 0.538486 -0.230769 3.000136 0.538486 -0.251282 3.000136 0.538486 -0.271795 3.000136 0.538486 -0.292308 3.000136 0.538486 -0.312821 3.000136 0.538486 -0.333333 3.000136 0.538486 -0.353846 3.000136 0.538486 -0.374359 3.000136 0.538486 -0.394872 3.000136 0.538486 -0.415385 3.000136 0.538486 -0.435897 3.000136 0.538486 -0.456410 3.000136 0.538486 -0.476923 3.000136 0.538486 -0.497436 3.000136 0.538486 -0.517949 3.000136 0.538486 -0.538462 3.000136 0.538486 -0.558974 3.000136 0.538486 -0.579487 3.000136 0.538486 -0.600000 3.000162 0.384636 0.200000 3.000162 0.384636 0.179487 3.000162 0.384636 0.158974 3.000162 0.384636 0.138462 3.000162 0.384636 0.117949 3.000162 0.384636 0.097436 3.000162 0.384636 0.076923 3.000162 0.384636 0.056410 3.000162 0.384636 0.035897 3.000162 0.384636 0.015385 3.000162 0.384636 -0.005128 3.000162 0.384636 -0.025641 3.000162 0.384636 -0.046154 3.000162 0.384636 -0.066667 3.000162 0.384636 -0.087179 3.000162 0.384636 -0.107692 3.000162 0.384636 -0.128205 3.000162 0.384636 -0.148718 3.000162 0.384636 -0.169231 3.000162 0.384636 -0.189744 3.000162 0.384636 -0.210256 3.000162 0.384636 -0.230769 3.000162 0.384636 -0.251282 3.000162 0.384636 -0.271795 3.000162 0.384636 -0.292308 3.000162 0.384636 -0.312821 3.000162 0.384636 -0.333333 3.000162 0.384636 -0.353846 3.000162 0.384636 -0.374359 3.000162 0.384636 -0.394872 3.000162 0.384636 -0.415385 3.000162 0.384636 -0.435897 3.000162 0.384636 -0.456410 3.000162 0.384636 -0.476923 3.000162 0.384636 -0.497436 3.000162 0.384636 -0.517949 3.000162 0.384636 -0.538462 3.000162 0.384636 -0.558974 3.000162 0.384636 -0.579487 3.000162 0.384636 -0.600000 3.000183 0.230783 0.200000 3.000183 0.230783 0.179487 3.000183 0.230783 0.158974 3.000183 0.230783 0.138462 3.000183 0.230783 0.117949 3.000183 0.230783 0.097436 3.000183 0.230783 0.076923 3.000183 0.230783 0.056410 3.000183 0.230783 0.035897 3.000183 0.230783 0.015385 3.000183 0.230783 -0.005128 3.000183 0.230783 -0.025641 3.000183 0.230783 -0.046154 3.000183 0.230783 -0.066667 3.000183 0.230783 -0.087179 3.000183 0.230783 -0.107692 3.000183 0.230783 -0.128205 3.000183 0.230783 -0.148718 3.000183 0.230783 -0.169231 3.000183 0.230783 -0.189744 3.000183 0.230783 -0.210256 3.000183 0.230783 -0.230769 3.000183 0.230783 -0.251282 3.000183 0.230783 -0.271795 3.000183 0.230783 -0.292308 3.000183 0.230783 -0.312821 3.000183 0.230783 -0.333333 3.000183 0.230783 -0.353846 3.000183 0.230783 -0.374359 3.000183 0.230783 -0.394872 3.000183 0.230783 -0.415385 3.000183 0.230783 -0.435897 3.000183 0.230783 -0.456410 3.000183 0.230783 -0.476923 3.000183 0.230783 -0.497436 3.000183 0.230783 -0.517949 3.000183 0.230783 -0.538462 3.000183 0.230783 -0.558974 3.000183 0.230783 -0.579487 3.000183 0.230783 -0.600000 3.000194 0.076928 0.200000 3.000194 0.076928 0.179487 3.000194 0.076928 0.158974 3.000194 0.076928 0.138462 3.000194 0.076928 0.117949 3.000194 0.076928 0.097436 3.000194 0.076928 0.076923 3.000194 0.076928 0.056410 3.000194 0.076928 0.035897 3.000194 0.076928 0.015385 3.000194 0.076928 -0.005128 3.000194 0.076928 -0.025641 3.000194 0.076928 -0.046154 3.000194 0.076928 -0.066667 3.000194 0.076928 -0.087179 3.000194 0.076928 -0.107692 3.000194 0.076928 -0.128205 3.000194 0.076928 -0.148718 3.000194 0.076928 -0.169231 3.000194 0.076928 -0.189744 3.000194 0.076928 -0.210256 3.000194 0.076928 -0.230769 3.000194 0.076928 -0.251282 3.000194 0.076928 -0.271795 3.000194 0.076928 -0.292308 3.000194 0.076928 -0.312821 3.000194 0.076928 -0.333333 3.000194 0.076928 -0.353846 3.000194 0.076928 -0.374359 3.000194 0.076928 -0.394872 3.000194 0.076928 -0.415385 3.000194 0.076928 -0.435897 3.000194 0.076928 -0.456410 3.000194 0.076928 -0.476923 3.000194 0.076928 -0.497436 3.000194 0.076928 -0.517949 3.000194 0.076928 -0.538462 3.000194 0.076928 -0.558974 3.000194 0.076928 -0.579487 3.000194 0.076928 -0.600000 3.000194 -0.076928 0.200000 3.000194 -0.076928 0.179487 3.000194 -0.076928 0.158974 3.000194 -0.076928 0.138462 3.000194 -0.076928 0.117949 3.000194 -0.076928 0.097436 3.000194 -0.076928 0.076923 3.000194 -0.076928 0.056410 3.000194 -0.076928 0.035897 3.000194 -0.076928 0.015385 3.000194 -0.076928 -0.005128 3.000194 -0.076928 -0.025641 3.000194 -0.076928 -0.046154 3.000194 -0.076928 -0.066667 3.000194 -0.076928 -0.087179 3.000194 -0.076928 -0.107692 3.000194 -0.076928 -0.128205 3.000194 -0.076928 -0.148718 3.000194 -0.076928 -0.169231 3.000194 -0.076928 -0.189744 3.000194 -0.076928 -0.210256 3.000194 -0.076928 -0.230769 3.000194 -0.076928 -0.251282 3.000194 -0.076928 -0.271795 3.000194 -0.076928 -0.292308 3.000194 -0.076928 -0.312821 3.000194 -0.076928 -0.333333 3.000194 -0.076928 -0.353846 3.000194 -0.076928 -0.374359 3.000194 -0.076928 -0.394872 3.000194 -0.076928 -0.415385 3.000194 -0.076928 -0.435897 3.000194 -0.076928 -0.456410 3.000194 -0.076928 -0.476923 3.000194 -0.076928 -0.497436 3.000194 -0.076928 -0.517949 3.000194 -0.076928 -0.538462 3.000194 -0.076928 -0.558974 3.000194 -0.076928 -0.579487 3.000194 -0.076928 -0.600000 3.000183 -0.230783 0.200000 3.000183 -0.230783 0.179487 3.000183 -0.230783 0.158974 3.000183 -0.230783 0.138462 3.000183 -0.230783 0.117949 3.000183 -0.230783 0.097436 3.000183 -0.230783 0.076923 3.000183 -0.230783 0.056410 3.000183 -0.230783 0.035897 3.000183 -0.230783 0.015385 3.000183 -0.230783 -0.005128 3.000183 -0.230783 -0.025641 3.000183 -0.230783 -0.046154 3.000183 -0.230783 -0.066667 3.000183 -0.230783 -0.087179 3.000183 -0.230783 -0.107692 3.000183 -0.230783 -0.128205 3.000183 -0.230783 -0.148718 3.000183 -0.230783 -0.169231 3.000183 -0.230783 -0.189744 3.000183 -0.230783 -0.210256 3.000183 -0.230783 -0.230769 3.000183 -0.230783 -0.251282 3.000183 -0.230783 -0.271795 3.000183 -0.230783 -0.292308 3.000183 -0.230783 -0.312821 3.000183 -0.230783 -0.333333 3.000183 -0.230783 -0.353846 3.000183 -0.230783 -0.374359 3.000183 -0.230783 -0.394872 3.000183 -0.230783 -0.415385 3.000183 -0.230783 -0.435897 3.000183 -0.230783 -0.456410 3.000183 -0.230783 -0.476923 3.000183 -0.230783 -0.497436 3.000183 -0.230783 -0.517949 3.000183 -0.230783 -0.538462 3.000183 -0.230783 -0.558974 3.000183 -0.230783 -0.579487 3.000183 -0.230783 -0.600000 3.000162 -0.384636 0.200000 3.000162 -0.384636 0.179487 3.000162 -0.384636 0.158974 3.000162 -0.384636 0.138462 3.000162 -0.384636 0.117949 3.000162 -0.384636 0.097436 3.000162 -0.384636 0.076923 3.000162 -0.384636 0.056410 3.000162 -0.384636 0.035897 3.000162 -0.384636 0.015385 3.000162 -0.384636 -0.005128 3.000162 -0.384636 -0.025641 3.000162 -0.384636 -0.046154 3.000162 -0.384636 -0.066667 3.000162 -0.384636 -0.087179 3.000162 -0.384636 -0.107692 3.000162 -0.384636 -0.128205 3.000162 -0.384636 -0.148718 3.000162 -0.384636 -0.169231 3.000162 -0.384636 -0.189744 3.000162 -0.384636 -0.210256 3.000162 -0.384636 -0.230769 3.000162 -0.384636 -0.251282 3.000162 -0.384636 -0.271795 3.000162 -0.384636 -0.292308 3.000162 -0.384636 -0.312821 3.000162 -0.384636 -0.333333 3.000162 -0.384636 -0.353846 3.000162 -0.384636 -0.374359 3.000162 -0.384636 -0.394872 3.000162 -0.384636 -0.415385 3.000162 -0.384636 -0.435897 3.000162 -0.384636 -0.456410 3.000162 -0.384636 -0.476923 3.000162 -0.384636 -0.497436 3.000162 -0.384636 -0.517949 3.000162 -0.384636 -0.538462 3.000162 -0.384636 -0.558974 3.000162 -0.384636 -0.579487 3.000162 -0.384636 -0.600000 3.000136 -0.538486 0.200000 3.000136 -0.538486 0.179487 3.000136 -0.538486 0.158974 3.000136 -0.538486 0.138462 3.000136 -0.538486 0.117949 3.000136 -0.538486 0.097436 3.000136 -0.538486 0.076923 3.000136 -0.538486 0.056410 3.000136 -0.538486 0.035897 3.000136 -0.538486 0.015385 3.000136 -0.538486 -0.005128 3.000136 -0.538486 -0.025641 3.000136 -0.538486 -0.046154 3.000136 -0.538486 -0.066667 3.000136 -0.538486 -0.087179 3.000136 -0.538486 -0.107692 3.000136 -0.538486 -0.128205 3.000136 -0.538486 -0.148718 3.000136 -0.538486 -0.169231 3.000136 -0.538486 -0.189744 3.000136 -0.538486 -0.210256 3.000136 -0.538486 -0.230769 3.000136 -0.538486 -0.251282 3.000136 -0.538486 -0.271795 3.000136 -0.538486 -0.292308 3.000136 -0.538486 -0.312821 3.000136 -0.538486 -0.333333 3.000136 -0.538486 -0.353846 3.000136 -0.538486 -0.374359 3.000136 -0.538486 -0.394872 3.000136 -0.538486 -0.415385 3.000136 -0.538486 -0.435897 3.000136 -0.538486 -0.456410 3.000136 -0.538486 -0.476923 3.000136 -0.538486 -0.497436 3.000136 -0.538486 -0.517949 3.000136 -0.538486 -0.538462 3.000136 -0.538486 -0.558974 3.000136 -0.538486 -0.579487 3.000136 -0.538486 -0.600000 3.000107 -0.692332 0.200000 3.000107 -0.692332 0.179487 3.000107 -0.692332 0.158974 3.000107 -0.692332 0.138462 3.000107 -0.692332 0.117949 3.000107 -0.692332 0.097436 3.000107 -0.692332 0.076923 3.000107 -0.692332 0.056410 3.000107 -0.692332 0.035897 3.000107 -0.692332 0.015385 3.000107 -0.692332 -0.005128 3.000107 -0.692332 -0.025641 3.000107 -0.692332 -0.046154 3.000107 -0.692332 -0.066667 3.000107 -0.692332 -0.087179 3.000107 -0.692332 -0.107692 3.000107 -0.692332 -0.128205 3.000107 -0.692332 -0.148718 3.000107 -0.692332 -0.169231 3.000107 -0.692332 -0.189744 3.000107 -0.692332 -0.210256 3.000107 -0.692332 -0.230769 3.000107 -0.692332 -0.251282 3.000107 -0.692332 -0.271795 3.000107 -0.692332 -0.292308 3.000107 -0.692332 -0.312821 3.000107 -0.692332 -0.333333 3.000107 -0.692332 -0.353846 3.000107 -0.692332 -0.374359 3.000107 -0.692332 -0.394872 3.000107 -0.692332 -0.415385 3.000107 -0.692332 -0.435897 3.000107 -0.692332 -0.456410 3.000107 -0.692332 -0.476923 3.000107 -0.692332 -0.497436 3.000107 -0.692332 -0.517949 3.000107 -0.692332 -0.538462 3.000107 -0.692332 -0.558974 3.000107 -0.692332 -0.579487 3.000107 -0.692332 -0.600000 3.000080 -0.846176 0.200000 3.000080 -0.846176 0.179487 3.000080 -0.846176 0.158974 3.000080 -0.846176 0.138462 3.000080 -0.846176 0.117949 3.000080 -0.846176 0.097436 3.000080 -0.846176 0.076923 3.000080 -0.846176 0.056410 3.000080 -0.846176 0.035897 3.000080 -0.846176 0.015385 3.000080 -0.846176 -0.005128 3.000080 -0.846176 -0.025641 3.000080 -0.846176 -0.046154 3.000080 -0.846176 -0.066667 3.000080 -0.846176 -0.087179 3.000080 -0.846176 -0.107692 3.000080 -0.846176 -0.128205 3.000080 -0.846176 -0.148718 3.000080 -0.846176 -0.169231 3.000080 -0.846176 -0.189744 3.000080 -0.846176 -0.210256 3.000080 -0.846176 -0.230769 3.000080 -0.846176 -0.251282 3.000080 -0.846176 -0.271795 3.000080 -0.846176 -0.292308 3.000080 -0.846176 -0.312821 3.000080 -0.846176 -0.333333 3.000080 -0.846176 -0.353846 3.000080 -0.846176 -0.374359 3.000080 -0.846176 -0.394872 3.000080 -0.846176 -0.415385 3.000080 -0.846176 -0.435897 3.000080 -0.846176 -0.456410 3.000080 -0.846176 -0.476923 3.000080 -0.846176 -0.497436 3.000080 -0.846176 -0.517949 3.000080 -0.846176 -0.538462 3.000080 -0.846176 -0.558974 3.000080 -0.846176 -0.579487 3.000080 -0.846176 -0.600000 3.000056 -1.000019 0.200000 3.000056 -1.000019 0.179487 3.000056 -1.000019 0.158974 3.000056 -1.000019 0.138462 3.000056 -1.000019 0.117949 3.000056 -1.000019 0.097436 3.000056 -1.000019 0.076923 3.000056 -1.000019 0.056410 3.000056 -1.000019 0.035897 3.000056 -1.000019 0.015385 3.000056 -1.000019 -0.005128 3.000056 -1.000019 -0.025641 3.000056 -1.000019 -0.046154 3.000056 -1.000019 -0.066667 3.000056 -1.000019 -0.087179 3.000056 -1.000019 -0.107692 3.000056 -1.000019 -0.128205 3.000056 -1.000019 -0.148718 3