<?xml version="1.0"?>
<VTKFile type="StructuredGrid" version="1.0" byte_order="LittleEndian">
  <StructuredGrid WholeExtent="0 199 0 199 0 0">
    <Piece Extent="0 199 0 199 0 0">
      <PointData>
        <DataArray type="Float64" Name="Loss" NumberOfComponents="1" format="ascii">
          9.112648 9.044686 8.976532 8.908014 8.838973 8.769258 8.698734 8.627279 8.554786 8.481163 8.406337 8.330249 8.252862 8.174152 8.094118 8.012774 7.930154 7.846308 7.761306 7.675233 7.588191 7.500296 7.411680 7.322488 7.232876 7.143014 7.053077 6.963251 6.873728 6.784705 6.696381 6.608960 6.522641 6.437627 6.354114 6.272294 6.192352 6.114468 6.038809 5.965534 5.894787 5.826702 5.761396 5.698973 5.639518 5.583103 5.529779 5.479581 5.432525 5.388611 5.347817 5.310106 5.275421 5.243690 5.214823 5.188714 5.165241 5.144271 5.125654 5.109230 5.094830 5.082273 5.071373 5.061936 5.053764 5.046657 5.040412 5.034828 5.029705 5.024847 5.020064 5.015171 5.009994 5.004366 4.998132 4.991151 4.983294 4.974446 4.964509 4.953400 4.941055 4.927426 4.912482 4.896213 4.878624 4.859742 4.839608 4.818284 4.795846 4.772391 4.748026 4.722878 4.697084 4.670797 4.644180 4.617405 4.590654 4.564116 4.537986 4.512462 4.487747 4.464041 4.441547 4.420463 4.400983 4.383297 4.367587 4.354025 4.342775 4.333988 4.327802 4.324343 4.323721 4.326030 4.331347 4.339734 4.351233 4.365869 4.383649 4.404561 4.428576 4.455645 4.485704 4.518671 4.554446 4.592915 4.633951 4.677410 4.723138 4.770969 4.820728 4.872230 4.925286 4.979699 5.035269 5.091795 5.149076 5.206909 5.265098 5.323448 5.381774 5.439895 5.497640 5.554851 5.611378 5.667086 5.721855 5.775579 5.828168 5.879548 5.929664 5.978477 6.025968 6.072134 6.116993 6.160578 6.202943 6.244157 6.284306 6.323494 6.361839 6.399473 6.436542 6.473203 6.509625 6.545987 6.582473 6.619276 6.656593 6.694625 6.733573 6.773640 6.815024 6.857924 6.902530 6.949029 6.997597 7.048403 7.101602 7.157341 7.215750 7.276946 7.341032 7.408092 7.478196 7.551394 7.627720 7.707188 7.789797 7.875524 7.964330 8.056157 8.150933 8.248564 8.348946 8.451954 8.557454 8.665295 8.775318 8.887352 9.017587 8.948635 8.879540 8.810138 8.740278 8.669815 8.598620 8.526577 8.453583 8.379551 8.304410 8.228106 8.150601 8.071874 7.991923 7.910762 7.828423 7.744955 7.660422 7.574908 7.488509 7.401336 7.313516 7.225186 7.136497 7.047608 6.958690 6.869918 6.781476 6.693553 6.606338 6.520026 6.434808 6.350876 6.268419 6.187619 6.108655 6.031696 5.956904 5.884428 5.814409 5.746972 5.682230 5.620282 5.561211 5.505083 5.451948 5.401839 5.354773 5.310747 5.269743 5.231724 5.196636 5.164410 5.134960 5.108185 5.083970 5.062184 5.042687 5.025327 5.009940 4.996354 4.984391 4.973867 4.964592 4.956374 4.949022 4.942341 4.936142 4.930237 4.924444 4.918587 4.912499 4.906022 4.899008 4.891320 4.882836 4.873447 4.863059 4.851593 4.838987 4.825195 4.810188 4.793957 4.776506 4.757860 4.738061 4.717164 4.695246 4.672395 4.648718 4.624333 4.599372 4.573981 4.548315 4.522539 4.496827 4.471360 4.446323 4.421906 4.398301 4.375701 4.354300 4.334285 4.315844 4.299158 4.284398 4.271732 4.261313 4.253288 4.247789 4.244935 4.244831 4.247566 4.253217 4.261839 4.273475 4.288148 4.305864 4.326613 4.350366 4.377077 4.406685 4.439109 4.474257 4.512020 4.552274 4.594883 4.639701 4.686567 4.735316 4.785771 4.837749 4.891065 4.945528 5.000944 5.057120 5.113866 5.170993 5.228314 5.285653 5.342837 5.399703 5.456099 5.511883 5.566927 5.621114 5.674343 5.726530 5.777602 5.827509 5.876212 5.923693 5.969950 6.014999 6.058872 6.101621 6.143311 6.184026 6.223863 6.262936 6.301371 6.339307 6.376895 6.414295 6.451678 6.489221 6.527107 6.565526 6.604667 6.644725 6.685891 6.728358 6.772312 6.817937 6.865410 6.914901 6.966569 7.020564 7.077026 7.136078 7.197834 7.262389 7.329827 7.400212 7.473593 7.550002 7.629453 7.711944 7.797455 7.885946 7.977365 8.071640 8.168683 8.268393 8.370654 8.475334 8.582292 8.691374 8.802417 8.922556 8.852441 8.782241 8.711803 8.640980 8.569639 8.497657 8.424923 8.351341 8.276829 8.201320 8.124761 8.047118 7.968372 7.888518 7.807572 7.725563 7.642537 7.558556 7.473698 7.388053 7.301729 7.214842 7.127525 7.039917 6.952172 6.864448 6.776914 6.689741 6.603108 6.517195 6.432185 6.348259 6.265597 6.184379 6.104778 6.026961 5.951088 5.877312 5.805775 5.736609 5.669933 5.605853 5.544463 5.485841 5.430050 5.377137 5.327134 5.280055 5.235898 5.194647 5.156266 5.120705 5.087898 5.057764 5.030208 5.005120 4.982378 4.961849 4.943388 4.926842 4.912049 4.898839 4.887039 4.876469 4.866949 4.858296 4.850328 4.842865 4.835731 4.828753 4.821765 4.814609 4.807135 4.799204 4.790687 4.781469 4.771445 4.760528 4.748642 4.735729 4.721746 4.706666 4.690479 4.673190 4.654823 4.635414 4.615021 4.593711 4.571572 4.548701 4.525211 4.501228 4.476889 4.452340 4.427737 4.403245 4.379033 4.355279 4.332160 4.309859 4.288558 4.268438 4.249680 4.232458 4.216943 4.203299 4.191684 4.182242 4.175112 4.170418 4.168273 4.168777 4.172014 4.178055 4.186954 4.198751 4.213467 4.231109 4.251666 4.275111 4.301402 4.330479 4.362268 4.396681 4.433613 4.472950 4.514562 4.558311 4.604046 4.651608 4.700834 4.751549 4.803577 4.856739 4.910852 4.965734 5.021204 5.077083 5.133197 5.189377 5.245461 5.301295 5.356736 5.411648 5.465911 5.519415 5.572064 5.623778 5.674490 5.724151 5.772725 5.820194 5.866557 5.911829 5.956041 5.999241 6.041490 6.082869 6.123468 6.163396 6.202770 6.241724 6.280399 6.318947 6.357529 6.396312 6.435470 6.475181 6.515626 6.556986 6.599443 6.643179 6.688371 6.735192 6.783809 6.834382 6.887062 6.941992 6.999302 7.059109 7.121521 7.186628 7.254508 7.325223 7.398819 7.475326 7.554758 7.637111 7.722367 7.810490 7.901429 7.995116 8.091469 8.190391 8.291773 8.395492 8.501413 8.609391 8.719271 8.827603 8.756163 8.684704 8.613083 8.541165 8.468823 8.395943 8.322422 8.248170 8.173110 8.097180 8.020332 7.942532 7.863762 7.784020 7.703319 7.621686 7.539164 7.455812 7.371701 7.286917 7.201559 7.115737 7.029573 6.943199 6.856757 6.770395 6.684271 6.598545 6.513382 6.428953 6.345426 6.262972 6.181759 6.101954 6.023718 5.947207 5.872572 5.799955 5.729488 5.661294 5.595485 5.532160 5.471406 5.413296 5.357889 5.305229 5.255345 5.208251 5.163946 5.122413 5.083620 5.047519 5.014050 4.983136 4.954689 4.928606 4.904774 4.883069 4.863354 4.845487 4.829317 4.814686 4.801431 4.789385 4.778380 4.768245 4.758810 4.749908 4.741373 4.733044 4.724767 4.716393 4.707784 4.698808 4.689346 4.679290 4.668543 4.657022 4.644659 4.631397 4.617197 4.602033 4.585896 4.568792 4.550741 4.531780 4.511959 4.491344 4.470015 4.448063 4.425595 4.402726 4.379585 4.356309 4.333043 4.309941 4.287162 4.264869 4.243230 4.222415 4.202593 4.183935 4.166608 4.150775 4.136596 4.124225 4.113806 4.105477 4.099367 4.095590 4.094254 4.095451 4.099259 4.105745 4.114960 4.126940 4.141705 4.159262 4.179601 4.202696 4.228507 4.256980 4.288046 4.321620 4.357607 4.395898 4.436374 4.478904 4.523349 4.569561 4.617385 4.666660 4.717221 4.768900 4.821528 4.874934 4.928950 4.983407 5.038145 5.093005 5.147835 5.202494 5.256844 5.310763 5.364136 5.416861 5.468849 5.520025 5.570326 5.619706 5.668133 5.715589 5.762073 5.807600 5.852198 5.895911 5.938798 5.980932 6.022401 6.063302 6.103748 6.143862 6.183776 6.223633 6.263581 6.303778 6.344386 6.385570 6.427499 6.470344 6.514273 6.559457 6.606059 6.654243 6.704164 6.755971 6.809805 6.865800 6.924076 6.984744 7.047904 7.113640 7.182025 7.253116 7.326957 7.403576 7.482984 7.565181 7.650147 7.737850 7.828241 7.921258 8.016824 8.114849 8.215230 8.317852 8.422591 8.529310 8.637865 8.732783 8.659866 8.587005 8.514066 8.440926 8.367468 8.293587 8.219189 8.144191 8.068521 7.992123 7.914951 7.836976 7.758181 7.678563 7.598134 7.516920 7.434960 7.352309 7.269031 7.185206 7.100925 7.016289 6.931410 6.846411 6.761421 6.676578 6.592024 6.507910 6.424387 6.341611 6.259738 6.178924 6.099325 6.021094 5.944379 5.869325 5.796070 5.724743 5.655469 5.588358 5.523515 5.461031 5.400986 5.343446 5.288467 5.236088 5.186337 5.139226 5.094755 5.052908 5.013654 4.976952 4.942745 4.910962 4.881522 4.854330 4.829284 4.806266 4.785154 4.765816 4.748111 4.731896 4.717020 4.703329 4.690669 4.678883 4.667813 4.657306 4.647210 4.637376 4.627662 4.617931 4.608056 4.597917 4.587402 4.576413 4.564860 4.552667 4.539771 4.526120 4.511678 4.496422 4.480342 4.463443 4.445746 4.427283 4.408101 4.388260 4.367833 4.346906 4.325576 4.303950 4.282145 4.260287 4.238511 4.216958 4.195774 4.175111 4.155121 4.135961 4.117789 4.100759 4.085026 4.070742 4.058052 4.047097 4.038012 4.030924 4.025949 4.023196 4.022760 4.024729 4.029174 4.036156 4.045722 4.057906 4.072726 4.090188 4.110284 4.132989 4.158267 4.186067 4.216325 4.248965 4.283898 4.321025 4.360235 4.401408 4.444416 4.489122 4.535384 4.583054 4.631981 4.682008 4.732981 4.784743 4.837137 4.890011 4.943215 4.996603 5.050037 5.103384 5.156521 5.209332 5.261713 5.313571 5.364822 5.415398 5.465241 5.514308 5.562571 5.610012 5.656632 5.702442 5.747469 5.791755 5.835353 5.878330 5.920766 5.962753 6.004394 6.045801 6.087096 6.128411 6.169882 6.211655 6.253878 6.296704 6.340288 6.384787 6.430357 6.477153 6.525328 6.575031 6.626405 6.679587 6.734708 6.791889 6.851243 6.912871 6.976864 7.043301 7.112248 7.183759 7.257872 7.334615 7.413998 7.496020 7.580663 7.667897 7.757679 7.849949 7.944638 8.041662 8.140927 8.242328 8.345749 8.451065 8.558144 8.638158 8.563625 8.489228 8.414847 8.340369 8.265690 8.190714 8.115356 8.039540 7.963203 7.886292 7.808766 7.730599 7.651776 7.572294 7.492163 7.411408 7.330064 7.248179 7.165813 7.083038 6.999935 6.916597 6.833126 6.749631 6.666231 6.583049 6.500215 6.417865 6.336137 6.255170 6.175106 6.096088 6.018255 5.941747 5.866697 5.793237 5.721491 5.651577 5.583607 5.517682 5.453896 5.392332 5.333062 5.276146 5.221634 5.169563 5.119957 5.072828 5.028175 4.985983 4.946226 4.908865 4.873849 4.841115 4.810588 4.782183 4.755806 4.731353 4.708711 4.687761 4.668378 4.650428 4.633778 4.618288 4.603816 4.590222 4.577364 4.565101 4.553295 4.541814 4.530528 4.519313 4.508053 4.496640 4.484973 4.472963 4.460528 4.447600 4.434121 4.420045 4.405339 4.389981 4.373963 4.357290 4.339980 4.322062 4.303579 4.284586 4.265148 4.245343 4.225259 4.204992 4.184649 4.164344 4.144199 4.124342 4.104904 4.086023 4.067838 4.050491 4.034123 4.018875 4.004887 3.992297 3.981235 3.971831 3.964206 3.958475 3.954743 3.953108 3.953659 3.956471 3.961613 3.969138 3.979089 3.991496 4.006376 4.023735 4.043564 4.065843 4.090536 4.117600 4.146976 4.178594 4.212375 4.248228 4.286053 4.325741 4.367176 4.410234 4.454788 4.500702 4.547839 4.596059 4.645221 4.695182 4.745803 4.796943 4.848468 4.900246 4.952151 5.004064 5.055872 5.107471 5.158766 5.209674 5.260119 5.310038 5.359380 5.408105 5.456188 5.503613 5.550381 5.596501 5.641999 5.686911 5.731287 5.775187 5.818683 5.861858 5.904806 5.947628 5.990435 6.033346 6.076485 6.119982 6.163973 6.208596 6.253992 6.300302 6.347667 6.396229 6.446125 6.497490 6.550454 6.605142 6.661671 6.720151 6.780684 6.843362 6.908267 6.975472 7.045034 7.117004 7.191417 7.268295 7.347651 7.429481 7.513770 7.600492 7.689605 7.781058 7.874787 7.970716 8.068761 8.168824 8.270803 8.374583 8.480046 8.543796 8.467520 8.391467 8.315531 8.239611 8.163616 8.087459 8.011066 7.934368 7.857311 7.779846 7.701940 7.623566 7.544713 7.465377 7.385568 7.305307 7.224626 7.143568 7.062185 6.980542 6.898710 6.816772 6.734817 6.652944 6.571257 6.489866 6.408887 6.328439 6.248645 6.169628 6.091516 6.014433 5.938504 5.863853 5.790598 5.718856 5.648737 5.580346 5.513782 5.449135 5.386489 5.325916 5.267480 5.211237 5.157229 5.105489 5.056039 5.008890 4.964040 4.921476 4.881176 4.843105 4.807216 4.773456 4.741756 4.712043 4.684232 4.658230 4.633939 4.611252 4.590058 4.570239 4.551676 4.534245 4.517821 4.502278 4.487491 4.473335 4.459688 4.446431 4.433449 4.420634 4.407882 4.395096 4.382187 4.369076 4.355692 4.341972 4.327865 4.313331 4.298340 4.282873 4.266923 4.250494 4.233601 4.216272 4.198543 4.180464 4.162092 4.143497 4.124755 4.105954 4.087188 4.068558 4.050171 4.032142 4.014587 3.997628 3.981388 3.965994 3.951571 3.938244 3.926137 3.915372 3.906066 3.898333 3.892281 3.888012 3.885619 3.885190 3.886803 3.890526 3.896418 3.904527 3.914893 3.927540 3.942486 3.959734 3.979276 4.001095 4.025160 4.051430 4.079855 4.110372 4.142911 4.177391 4.213723 4.251811 4.291551 4.332834 4.375546 4.419567 4.464776 4.511048 4.558257 4.606278 4.654986 4.704258 4.753973 4.804015 4.854272 4.904638 4.955013 5.005306 5.055431 5.105314 5.154890 5.204101 5.252902 5.301259 5.349148 5.396556 5.443483 5.489938 5.535943 5.581531 5.626745 5.671640 5.716279 5.760735 5.805092 5.849440 5.893878 5.938509 5.983446 6.028803 6.074700 6.121261 6.168610 6.216872 6.266173 6.316639 6.368391 6.421548 6.476227 6.532538 6.590585 6.650465 6.712270 6.776080 6.841970 6.910001 6.980228 7.052692 7.127427 7.204452 7.283778 7.365401 7.449310 7.535478 7.623872 7.714444 7.807137 7.901886 7.998613 8.097235 8.197659 8.299783 8.403503 8.449769 8.371638 8.293823 8.216231 8.138777 8.061380 7.983967 7.906471 7.828836 7.751012 7.672959 7.594646 7.516053 7.437167 7.357986 7.278520 7.198786 7.118811 7.038632 6.958296 6.877856 6.797377 6.716928 6.636588 6.556441 6.476578 6.397093 6.318087 6.239663 6.161927 6.084986 6.008950 5.933927 5.860024 5.787349 5.716004 5.646090 5.577702 5.510932 5.445864 5.382577 5.321142 5.261624 5.204077 5.148548 5.095076 5.043688 4.994404 4.947231 4.902171 4.859212 4.818333 4.779504 4.742688 4.707834 4.674886 4.643780 4.614442 4.586793 4.560746 4.536210 4.513089 4.491280 4.470681 4.451185 4.432683 4.415066 4.398226 4.382056 4.366449 4.351302 4.336517 4.321999 4.307659 4.293412 4.279183 4.264901 4.250506 4.235943 4.221169 4.206148 4.190855 4.175272 4.159395 4.143226 4.126778 4.110076 4.093150 4.076044 4.058807 4.041500 4.024188 4.006948 3.989859 3.973011 3.956495 3.940411 3.924860 3.909946 3.895776 3.882460 3.870106 3.858822 3.848717 3.839893 3.832455 3.826500 3.822121 3.819407 3.818439 3.819292 3.822034 3.826725 3.833415 3.842147 3.852953 3.865857 3.880871 3.898001 3.917239 3.938569 3.961965 3.987392 4.014806 4.044153 4.075371 4.108390 4.143135 4.179520 4.217458 4.256853 4.297605 4.339613 4.382770 4.426969 4.472101 4.518058 4.564731 4.612014 4.659804 4.707998 4.756501 4.805221 4.854071 4.902973 4.951853 5.000647 5.049296 5.097754 5.145980 5.193945 5.241627 5.289017 5.336113 5.382925 5.429470 5.475777 5.521884 5.567837 5.613692 5.659512 5.705370 5.751342 5.797514 5.843977 5.890827 5.938164 5.986091 6.034714 6.084141 6.134482 6.185844 6.238335 6.292062 6.347128 6.403632 6.461670 6.521333 6.582704 6.645862 6.710878 6.777814 6.846726 6.917659 6.990650 7.065728 7.142909 7.222203 7.303607 7.387109 7.472690 7.560317 7.649951 7.741542 7.835034 7.930360 8.027448 8.126216 8.226578 8.328443 8.356156 8.276072 8.196402 8.117069 8.038000 7.959128 7.880392 7.801737 7.723115 7.644484 7.565811 7.487072 7.408246 7.329326 7.250310 7.171204 7.092023 7.012791 6.933537 6.854302 6.775129 6.696073 6.617192 6.538550 6.460219 6.382275 6.304796 6.227866 6.151571 6.076001 6.001244 5.927392 5.854535 5.782764 5.712168 5.642832 5.574841 5.508274 5.443208 5.379714 5.317857 5.257696 5.199287 5.142674 5.087896 5.034987 4.983968 4.934857 4.887661 4.842378 4.799001 4.757513 4.717887 4.680093 4.644089 4.609827 4.577255 4.546310 4.516926 4.489032 4.462550 4.437401 4.413499 4.390758 4.369088 4.348400 4.328601 4.309602 4.291313 4.273644 4.256510 4.239828 4.223519 4.207508 4.191725 4.176107 4.160594 4.145136 4.129688 4.114212 4.098679 4.083068 4.067365 4.051565 4.035670 4.019691 4.003649 3.987569 3.971487 3.955445 3.939493 3.923686 3.908087 3.892765 3.877791 3.863244 3.849207 3.835762 3.823000 3.811008 3.799877 3.789699 3.780565 3.772563 3.765782 3.760307 3.756220 3.753600 3.752521 3.753050 3.755251 3.759181 3.764889 3.772418 3.781803 3.793073 3.806246 3.821334 3.838340 3.857258 3.878074 3.900768 3.925309 3.951660 3.979777 4.009607 4.041091 4.074167 4.108764 4.144806 4.182215 4.220907 4.260797 4.301797 4.343816 4.386763 4.430549 4.475082 4.520273 4.566037 4.612287 4.658945 4.705933 4.753180 4.800618 4.848188 4.895835 4.943511 4.991175 5.038796 5.086348 5.133814 5.181184 5.228459 5.275645 5.322759 5.369823 5.416869 5.463936 5.511071 5.558326 5.605762 5.653443 5.701442 5.749832 5.798695 5.848115 5.898177 5.948971 6.000586 6.053113 6.106643 6.161267 6.217072 6.274146 6.332571 6.392427 6.453789 6.516729 6.581312 6.647596 6.715634 6.785472 6.857149 6.930695 7.006133 7.083478 7.162738 7.243911 7.326986 7.411948 7.498768 7.587415 7.677848 7.770017 7.863869 7.959341 8.056367 8.154875 8.254788 8.263037 8.180920 8.099319 8.018171 7.937420 7.857012 7.776898 7.697035 7.617385 7.537914 7.458596 7.379411 7.300345 7.221389 7.142543 7.063812 6.985208 6.906749 6.828459 6.750370 6.672517 6.594943 6.517693 6.440821 6.364381 6.288434 6.213044 6.138276 6.064198 5.990883 5.918400 5.846822 5.776221 5.706670 5.638237 5.570993 5.505004 5.440333 5.377041 5.315185 5.254816 5.195982 5.138726 5.083084 5.029089 4.976764 4.926130 4.877198 4.829975 4.784460 4.740647 4.698523 4.658067 4.619253 4.582050 4.546420 4.512319 4.479700 4.448510 4.418692 4.390184 4.362922 4.336840 4.311868 4.287935 4.264970 4.242900 4.221653 4.201157 4.181341 4.162138 4.143481 4.125308 4.107558 4.090177 4.073112 4.056319 4.039755 4.023385 4.007180 3.991115 3.975175 3.959347 3.943627 3.928019 3.912530 3.897175 3.881977 3.866962 3.852165 3.837625 3.823385 3.809496 3.796012 3.782991 3.770494 3.758587 3.747337 3.736813 3.727087 3.718232 3.710318 3.703420 3.697607 3.692951 3.689518 3.687375 3.686585 3.687206 3.689292 3.692895 3.698059 3.704825 3.713227 3.723293 3.735045 3.748498 3.763662 3.780539 3.799125 3.819408 3.841372 3.864992 3.890239 3.917076 3.945463 3.975352 4.006692 4.039427 4.073498 4.108841 4.145390 4.183077 4.221831 4.261581 4.302255 4.343780 4.386085 4.429100 4.472754 4.516981 4.561718 4.606903 4.652479 4.698394 4.744599 4.791052 4.837713 4.884553 4.931543 4.978665 5.025905 5.073256 5.120716 5.168293 5.215998 5.263850 5.311875 5.360103 5.408571 5.457321 5.506400 5.555862 5.605762 5.656160 5.707120 5.758709 5.810995 5.864049 5.917942 5.972747 6.028536 6.085380 6.143351 6.202515 6.262940 6.324690 6.387823 6.452397 6.518463 6.586068 6.655254 6.726057 6.798508 6.872631 6.948445 7.025962 7.105186 7.186118 7.268749 7.353065 7.439046 7.526665 7.615890 7.706682 7.798998 7.892788 7.988000 8.084577 8.182456 8.170497 8.086283 8.002689 7.919670 7.837183 7.755190 7.673655 7.592546 7.511835 7.431497 7.351514 7.271869 7.192554 7.113561 7.034891 6.956547 6.878537 6.800876 6.723580 6.646674 6.570182 6.494136 6.418569 6.343521 6.269032 6.195146 6.121910 6.049371 5.977581 5.906591 5.836453 5.767221 5.698947 5.631684 5.565483 5.500396 5.436471 5.373755 5.312292 5.252123 5.193289 5.135822 5.079755 5.025114 4.971923 4.920201 4.869961 4.821213 4.773961 4.728206 4.683942 4.641160 4.599846 4.559980 4.521539 4.484496 4.448819 4.414473 4.381418 4.349614 4.319015 4.289575 4.261244 4.233971 4.207704 4.182391 4.157978 4.134411 4.111640 4.089611 4.068274 4.047581 4.027486 4.007944 3.988914 3.970359 3.952245 3.934542 3.917223 3.900266 3.883655 3.867375 3.851420 3.835785 3.820473 3.805490 3.790846 3.776558 3.762645 3.749132 3.736048 3.723426 3.711301 3.699714 3.688706 3.678323 3.668612 3.659624 3.651409 3.644019 3.637508 3.631929 3.627334 3.623777 3.621309 3.619980 3.619839 3.620933 3.623304 3.626994 3.632040 3.638476 3.646331 3.655631 3.666397 3.678645 3.692387 3.707630 3.724376 3.742620 3.762355 3.783568 3.806241 3.830351 3.855872 3.882773 3.911019 3.940573 3.971391 4.003432 4.036647 4.070988 4.106405 4.142845 4.180257 4.218587 4.257783 4.297791 4.338560 4.380040 4.422180 4.464936 4.508261 4.552115 4.596459 4.641257 4.686477 4.732093 4.778081 4.824422 4.871100 4.918107 4.965437 5.013090 5.061069 5.109385 5.158050 5.207084 5.256509 5.306352 5.356644 5.407420 5.458718 5.510580 5.563049 5.616173 5.670000 5.724581 5.779967 5.836211 5.893366 5.951484 6.010620 6.070823 6.132145 6.194634 6.258337 6.323298 6.389557 6.457153 6.526121 6.596491 6.668289 6.741539 6.816258 6.892460 6.970153 7.049342 7.130025 7.212197 7.295848 7.380962 7.467521 7.555500 7.644871 7.735602 7.827657 7.920997 8.015581 8.111363 8.078625 7.992266 7.906634 7.821701 7.737440 7.653826 7.570838 7.488455 7.406658 7.325434 7.244770 7.164656 7.085085 7.006055 6.927564 6.849615 6.772213 6.695368 6.619088 6.543390 6.468290 6.393806 6.319961 6.246778 6.174283 6.102503 6.031469 5.961209 5.891757 5.823144 5.755403 5.688568 5.622671 5.557747 5.493828 5.430944 5.369129 5.308409 5.248815 5.190372 5.133104 5.077033 5.022180 4.968561 4.916191 4.865083 4.815244 4.766683 4.719400 4.673397 4.628671 4.585216 4.543022 4.502079 4.462372 4.423883 4.386593 4.350479 4.315518 4.281684 4.248947 4.217279 4.186648 4.157022 4.128370 4.100656 4.073848 4.047912 4.022815 3.998524 3.975007 3.952234 3.930174 3.908801 3.888088 3.868011 3.848549 3.829682 3.811394 3.793671 3.776501 3.759877 3.743793 3.728246 3.713239 3.698773 3.684858 3.671501 3.658715 3.646517 3.634923 3.623954 3.613632 3.603983 3.595033 3.586810 3.579344 3.572667 3.566810 3.561806 3.557689 3.554492 3.552249 3.550993 3.550759 3.551576 3.553478 3.556493 3.560650 3.565975 3.572492 3.580224 3.589190 3.599405 3.610885 3.623640 3.637678 3.653002 3.669613 3.687510 3.706687 3.727136 3.748843 3.771796 3.795976 3.821362 3.847934 3.875665 3.904529 3.934498 3.965542 3.997630 4.030730 4.064808 4.099833 4.135770 4.172586 4.210248 4.248723 4.287981 4.327990 4.368720 4.410146 4.452239 4.494976 4.538336 4.582298 4.626845 4.671962 4.717638 4.763863 4.810632 4.857941 4.905790 4.954181 5.003122 5.052619 5.102685 5.153334 5.204583 5.256452 5.308963 5.362139 5.416006 5.470593 5.525929 5.582045 5.638972 5.696742 5.755390 5.814948 5.875449 5.936927 5.999415 6.062943 6.127542 6.193242 6.260071 6.328054 6.397215 6.467576 6.539157 6.611973 6.686040 6.761368 6.837966 6.915840 6.994991 7.075420 7.157124 7.240094 7.324322 7.409797 7.496501 7.584419 7.673530 7.763811 7.855238 7.947783 8.041420 7.987510 7.898976 7.811278 7.724404 7.638344 7.553087 7.468625 7.384950 7.302054 7.219931 7.138576 7.057986 6.978157 6.899088 6.820779 6.743230 6.666444 6.590425 6.515176 6.440703 6.367012 6.294112 6.222011 6.150718 6.080244 6.010599 5.941796 5.873847 5.806763 5.740559 5.675247 5.610841 5.547354 5.484799 5.423191 5.362540 5.302861 5.244165 5.186463 5.129766 5.074085 5.019427 4.965802 4.913217 4.861678 4.811190 4.761757 4.713381 4.666065 4.619809 4.574612 4.530472 4.487386 4.445349 4.404356 4.364401 4.325474 4.287569 4.250674 4.214781 4.179876 4.145949 4.112987 4.080978 4.049906 4.019760 3.990526 3.962188 3.934735 3.908152 3.882427 3.857546 3.833497 3.810270 3.787852 3.766234 3.745407 3.725363 3.706095 3.687597 3.669863 3.652891 3.636678 3.621223 3.606526 3.592588 3.579411 3.566999 3.555357 3.544492 3.534408 3.525115 3.516622 3.508937 3.502072 3.496037 3.490845 3.486507 3.483037 3.480447 3.478753 3.477966 3.478102 3.479174 3.481197 3.484184 3.488150 3.493106 3.499067 3.506043 3.514047 3.523087 3.533174 3.544315 3.556516 3.569783 3.584119 3.599525 3.616003 3.633551 3.652166 3.671843 3.692578 3.714363 3.737189 3.761047 3.785927 3.811818 3.838708 3.866583 3.895433 3.925242 3.955998 3.987687 4.020296 4.053811 4.088218 4.123504 4.159658 4.196665 4.234514 4.273195 4.312695 4.353004 4.394114 4.436016 4.478702 4.522166 4.566401 4.611403 4.657170 4.703697 4.750985 4.799033 4.847842 4.897415 4.947756 4.998868 5.050759 5.103434 5.156901 5.211170 5.266250 5.322152 5.378886 5.436465 5.494901 5.554207 5.614395 5.675480 5.737474 5.800391 5.864244 5.929047 5.994811 6.061550 6.129276 6.197998 6.267729 6.338477 6.410251 6.483059 6.556907 6.631802 6.707748 6.784748 6.862804 6.941919 7.022090 7.103317 7.185598 7.268928 7.353303 7.438716 7.525161 7.612629 7.701111 7.790597 7.881077 7.972539 7.897242 7.806522 7.716746 7.627921 7.540052 7.453143 7.367199 7.282225 7.198222 7.115195 7.033146 6.952076 6.871987 6.792880 6.714753 6.637607 6.561440 6.486251 6.412037 6.338795 6.266522 6.195214 6.124866 6.055472 5.987029 5.919531 5.852970 5.787342 5.722639 5.658855 5.595984 5.534018 5.472952 5.412779 5.353491 5.295084 5.237551 5.180886 5.125084 5.070141 5.016052 4.962813 4.910420 4.858872 4.808165 4.758297 4.709268 4.661078 4.613726 4.567213 4.521540 4.476709 4.432723 4.389585 4.347298 4.305866 4.265293 4.225585 4.186745 4.148781 4.111697 4.075499 4.040194 4.005788 3.972286 3.939695 3.908022 3.877272 3.847451 3.818566 3.790622 3.763625 3.737579 3.712489 3.688360 3.665195 3.642999 3.621774 3.601523 3.582248 3.563951 3.546632 3.530292 3.514930 3.500547 3.487140 3.474708 3.463248 3.452758 3.443232 3.434668 3.427060 3.420403 3.414692 3.409921 3.406084 3.403174 3.401184 3.400109 3.399942 3.400676 3.402306 3.404826 3.408231 3.412515 3.417674 3.423706 3.430605 3.438370 3.446999 3.456488 3.466838 3.478046 3.490112 3.503035 3.516814 3.531449 3.546939 3.563285 3.580485 3.598539 3.617448 3.637211 3.657829 3.679303 3.701634 3.724823 3.748873 3.773786 3.799566 3.826218 3.853745 3.882152 3.911446 3.941632 3.972717 4.004708 4.037611 4.071433 4.106181 4.141862 4.178482 4.216049 4.254567 4.294042 4.334479 4.375883 4.418258 4.461607 4.505932 4.551237 4.597522 4.644789 4.693037 4.742267 4.792477 4.843665 4.895830 4.948968 5.003077 5.058152 5.114189 5.171184 5.229130 5.288024 5.347858 5.408627 5.470324 5.532944 5.596479 5.660922 5.726268 5.792510 5.859641 5.927654 5.996545 6.066307 6.136934 6.208421 6.280764 6.353959 6.428001 6.502887 6.578615 6.655182 6.732586 6.810827 6.889903 6.969816 7.050565 7.132152 7.214579 7.297848 7.381962 7.466925 7.552741 7.639415 7.726950 7.815353 7.904628 7.807914 7.715012 7.623165 7.532394 7.442720 7.354163 7.266742 7.180471 7.095366 7.011437 6.928695 6.847148 6.766799 6.687652 6.609707 6.532962 6.457412 6.383051 6.309868 6.237854 6.166994 6.097272 6.028671 5.961171 5.894752 5.829392 5.765067 5.701752 5.639421 5.578050 5.517611 5.458077 5.399423 5.341621 5.284646 5.228473 5.173077 5.118435 5.064526 5.011328 4.958824 4.906996 4.855829 4.805310 4.755429 4.706178 4.657549 4.609539 4.562148 4.515375 4.469225 4.423703 4.378817 4.334578 4.290998 4.248092 4.205876 4.164368 4.123589 4.083559 4.044301 4.005839 3.968197 3.931401 3.895477 3.860449 3.826346 3.793192 3.761013 3.729835 3.699681 3.670576 3.642541 3.615598 3.589765 3.565062 3.541503 3.519104 3.497876 3.477830 3.458973 3.441311 3.424847 3.409582 3.395514 3.382640 3.370953 3.360443 3.351101 3.342913 3.335864 3.329935 3.325109 3.321365 3.318679 3.317029 3.316390 3.316737 3.318044 3.320284 3.323432 3.327462 3.332349 3.338068 3.344595 3.351909 3.359988 3.368813 3.378365 3.388629 3.399590 3.411236 3.423554 3.436535 3.450173 3.464460 3.479392 3.494967 3.511183 3.528041 3.545543 3.563694 3.582498 3.601964 3.622100 3.642920 3.664435 3.686662 3.709618 3.733321 3.757792 3.783054 3.809130 3.836045 3.863824 3.892494 3.922082 3.952614 3.984116 4.016616 4.050139 4.084708 4.120349 4.157082 4.194928 4.233906 4.274033 4.315323 4.357788 4.401440 4.446285 4.492329 4.539575 4.588023 4.637672 4.688517 4.740551 4.793765 4.848148 4.903686 4.960365 5.018165 5.077069 5.137055 5.198102 5.260185 5.323281 5.387364 5.452408 5.518387 5.585273 5.653042 5.721665 5.791118 5.861374 5.932411 6.004203 6.076729 6.149969 6.223904 6.298515 6.373788 6.449709 6.526267 6.603453 6.681261 6.759685 6.838724 6.918378 6.998650 7.079545 7.161071 7.243238 7.326057 7.409543 7.493712 7.578581 7.664170 7.750501 7.837596 7.719615 7.624557 7.530660 7.437964 7.346505 7.256319 7.167435 7.079883 6.993686 6.908866 6.825438 6.743417 6.662811 6.583625 6.505860 6.429511 6.354570 6.281027 6.208865 6.138063 6.068599 6.000446 5.933572 5.867944 5.803526 5.740280 5.678163 5.617134 5.557149 5.498161 5.440125 5.382994 5.326722 5.271263 5.216573 5.162606 5.109320 5.056675 5.004633 4.953158 4.902217 4.851781 4.801822 4.752318 4.703250 4.654602 4.606365 4.558530 4.511096 4.464062 4.417436 4.371227 4.325448 4.280117 4.235256 4.190889 4.147046 4.103757 4.061058 4.018984 3.977576 3.936875 3.896923 3.857765 3.819445 3.782010 3.745506 3.709976 3.675468 3.642025 3.609689 3.578503 3.548505 3.519732 3.492219 3.465997 3.441096 3.417539 3.395350 3.374545 3.355139 3.337141 3.320559 3.305392 3.291640 3.279294 3.268346 3.258778 3.250573 3.243708 3.238157 3.233889 3.230871 3.229068 3.228441 3.228950 3.230550 3.233200 3.236853 3.241464 3.246988 3.253379 3.260592 3.268585 3.277315 3.286743 3.296830 3.307542 3.318847 3.330713 3.343115 3.356029 3.369434 3.383312 3.397650 3.412435 3.427660 3.443320 3.459412 3.475938 3.492903 3.510314 3.528182 3.546523 3.565353 3.584694 3.604572 3.625013 3.646049 3.667714 3.690045 3.713082 3.736866 3.761441 3.786852 3.813144 3.840364 3.868559 3.897775 3.928057 3.959449 3.991995 4.025734 4.060705 4.096943 4.134480 4.173345 4.213563 4.255156 4.298141 4.342531 4.388337 4.435563 4.484209 4.534273 4.585746 4.638616 4.692869 4.748483 4.805436 4.863700 4.923245 4.984037 5.046041 5.109217 5.173525 5.238923 5.305365 5.372807 5.441203 5.510506 5.580670 5.651649 5.723399 5.795874 5.869032 5.942833 6.017239 6.092212 6.167720 6.243733 6.320223 6.397168 6.474547 6.552346 6.630552 6.709158 6.788159 6.867558 6.947358 7.027569 7.108205 7.189281 7.270819 7.352843 7.435382 7.518467 7.602132 7.686414 7.771352 7.632438 7.535263 7.439356 7.344772 7.251563 7.159777 7.069460 6.980650 6.893383 6.807687 6.723587 6.641102 6.560243 6.481018 6.403428 6.327467 6.253124 6.180382 6.109219 6.039607 5.971511 5.904894 5.839713 5.775919 5.713462 5.652287 5.592335 5.533546 5.475857 5.419204 5.363522 5.308745 5.254806 5.201642 5.149187 5.097380 5.046160 4.995469 4.945254 4.895463 4.846050 4.796973 4.748193 4.699679 4.651403 4.603343 4.555484 4.507816 4.460334 4.413040 4.365943 4.319055 4.272396 4.225991 4.179870 4.134068 4.088627 4.043590 3.999006 3.954927 3.911410 3.868513 3.826296 3.784822 3.744156 3.704362 3.665505 3.627649 3.590860 3.555199 3.520728 3.487505 3.455586 3.425024 3.395868 3.368163 3.341949 3.317263 3.294136 3.272592 3.252652 3.234330 3.217635 3.202569 3.189130 3.177306 3.167085 3.158443 3.151355 3.145788 3.141705 3.139064 3.137817 3.137914 3.139301 3.141918 3.145707 3.150604 3.156547 3.163469 3